<?xml version="1.0"?>
<VTKFile type="UnstructuredGrid"  version="0.1"  >
<UnstructuredGrid>
<Piece  NumberOfPoints="10201" NumberOfCells="20000">
<Points>
<DataArray  type="Float64"  NumberOfComponents="3"  format="ascii">0 0 0  20 0 0  40 0 0  60 0 0  80 0 0  100 0 0  120 0 0  140 0 0  160 0 0  180 0 0  200 0 0  220 0 0  240 0 0  260 0 0  280 0 0  300 0 0  320 0 0  340 0 0  360 0 0  380 0 0  400 0 0  420 0 0  440 0 0  460 0 0  480 0 0  500 0 0  520 0 0  540 0 0  560 0 0  580 0 0  600 0 0  620 0 0  640 0 0  660 0 0  680 0 0  700 0 0  720 0 0  740 0 0  760 0 0  780 0 0  800 0 0  820 0 0  840 0 0  860 0 0  880 0 0  900 0 0  920 0 0  940 0 0  960 0 0  980 0 0  1000 0 0  1020 0 0  1040 0 0  1060 0 0  1080 0 0  1100 0 0  1120 0 0  1140 0 0  1160 0 0  1180 0 0  1200 0 0  1220 0 0  1240 0 0  1260 0 0  1280 0 0  1300 0 0  1320 0 0  1340 0 0  1360 0 0  1380 0 0  1400 0 0  1420 0 0  1440 0 0  1460 0 0  1480 0 0  1500 0 0  1520 0 0  1540 0 0  1560 0 0  1580 0 0  1600 0 0  1620 0 0  1640 0 0  1660 0 0  1680 0 0  1700 0 0  1720 0 0  1740 0 0  1760 0 0  1780 0 0  1800 0 0  1820 0 0  1840 0 0  1860 0 0  1880 0 0  1900 0 0  1920 0 0  1940 0 0  1960 0 0  1980 0 0  2000 0 0  0 10 0  20 10 0  40 10 0  60 10 0  80 10 0  100 10 0  120 10 0  140 10 0  160 10 0  180 10 0  200 10 0  220 10 0  240 10 0  260 10 0  280 10 0  300 10 0  320 10 0  340 10 0  360 10 0  380 10 0  400 10 0  420 10 0  440 10 0  460 10 0  480 10 0  500 10 0  520 10 0  540 10 0  560 10 0  580 10 0  600 10 0  620 10 0  640 10 0  660 10 0  680 10 0  700 10 0  720 10 0  740 10 0  760 10 0  780 10 0  800 10 0  820 10 0  840 10 0  860 10 0  880 10 0  900 10 0  920 10 0  940 10 0  960 10 0  980 10 0  1000 10 0  1020 10 0  1040 10 0  1060 10 0  1080 10 0  1100 10 0  1120 10 0  1140 10 0  1160 10 0  1180 10 0  1200 10 0  1220 10 0  1240 10 0  1260 10 0  1280 10 0  1300 10 0  1320 10 0  1340 10 0  1360 10 0  1380 10 0  1400 10 0  1420 10 0  1440 10 0  1460 10 0  1480 10 0  1500 10 0  1520 10 0  1540 10 0  1560 10 0  1580 10 0  1600 10 0  1620 10 0  1640 10 0  1660 10 0  1680 10 0  1700 10 0  1720 10 0  1740 10 0  1760 10 0  1780 10 0  1800 10 0  1820 10 0  1840 10 0  1860 10 0  1880 10 0  1900 10 0  1920 10 0  1940 10 0  1960 10 0  1980 10 0  2000 10 0  0 20 0  20 20 0  40 20 0  60 20 0  80 20 0  100 20 0  120 20 0  140 20 0  160 20 0  180 20 0  200 20 0  220 20 0  240 20 0  260 20 0  280 20 0  300 20 0  320 20 0  340 20 0  360 20 0  380 20 0  400 20 0  420 20 0  440 20 0  460 20 0  480 20 0  500 20 0  520 20 0  540 20 0  560 20 0  580 20 0  600 20 0  620 20 0  640 20 0  660 20 0  680 20 0  700 20 0  720 20 0  740 20 0  760 20 0  780 20 0  800 20 0  820 20 0  840 20 0  860 20 0  880 20 0  900 20 0  920 20 0  940 20 0  960 20 0  980 20 0  1000 20 0  1020 20 0  1040 20 0  1060 20 0  1080 20 0  1100 20 0  1120 20 0  1140 20 0  1160 20 0  1180 20 0  1200 20 0  1220 20 0  1240 20 0  1260 20 0  1280 20 0  1300 20 0  1320 20 0  1340 20 0  1360 20 0  1380 20 0  1400 20 0  1420 20 0  1440 20 0  1460 20 0  1480 20 0  1500 20 0  1520 20 0  1540 20 0  1560 20 0  1580 20 0  1600 20 0  1620 20 0  1640 20 0  1660 20 0  1680 20 0  1700 20 0  1720 20 0  1740 20 0  1760 20 0  1780 20 0  1800 20 0  1820 20 0  1840 20 0  1860 20 0  1880 20 0  1900 20 0  1920 20 0  1940 20 0  1960 20 0  1980 20 0  2000 20 0  0 30 0  20 30 0  40 30 0  60 30 0  80 30 0  100 30 0  120 30 0  140 30 0  160 30 0  180 30 0  200 30 0  220 30 0  240 30 0  260 30 0  280 30 0  300 30 0  320 30 0  340 30 0  360 30 0  380 30 0  400 30 0  420 30 0  440 30 0  460 30 0  480 30 0  500 30 0  520 30 0  540 30 0  560 30 0  580 30 0  600 30 0  620 30 0  640 30 0  660 30 0  680 30 0  700 30 0  720 30 0  740 30 0  760 30 0  780 30 0  800 30 0  820 30 0  840 30 0  860 30 0  880 30 0  900 30 0  920 30 0  940 30 0  960 30 0  980 30 0  1000 30 0  1020 30 0  1040 30 0  1060 30 0  1080 30 0  1100 30 0  1120 30 0  1140 30 0  1160 30 0  1180 30 0  1200 30 0  1220 30 0  1240 30 0  1260 30 0  1280 30 0  1300 30 0  1320 30 0  1340 30 0  1360 30 0  1380 30 0  1400 30 0  1420 30 0  1440 30 0  1460 30 0  1480 30 0  1500 30 0  1520 30 0  1540 30 0  1560 30 0  1580 30 0  1600 30 0  1620 30 0  1640 30 0  1660 30 0  1680 30 0  1700 30 0  1720 30 0  1740 30 0  1760 30 0  1780 30 0  1800 30 0  1820 30 0  1840 30 0  1860 30 0  1880 30 0  1900 30 0  1920 30 0  1940 30 0  1960 30 0  1980 30 0  2000 30 0  0 40 0  20 40 0  40 40 0  60 40 0  80 40 0  100 40 0  120 40 0  140 40 0  160 40 0  180 40 0  200 40 0  220 40 0  240 40 0  260 40 0  280 40 0  300 40 0  320 40 0  340 40 0  360 40 0  380 40 0  400 40 0  420 40 0  440 40 0  460 40 0  480 40 0  500 40 0  520 40 0  540 40 0  560 40 0  580 40 0  600 40 0  620 40 0  640 40 0  660 40 0  680 40 0  700 40 0  720 40 0  740 40 0  760 40 0  780 40 0  800 40 0  820 40 0  840 40 0  860 40 0  880 40 0  900 40 0  920 40 0  940 40 0  960 40 0  980 40 0  1000 40 0  1020 40 0  1040 40 0  1060 40 0  1080 40 0  1100 40 0  1120 40 0  1140 40 0  1160 40 0  1180 40 0  1200 40 0  1220 40 0  1240 40 0  1260 40 0  1280 40 0  1300 40 0  1320 40 0  1340 40 0  1360 40 0  1380 40 0  1400 40 0  1420 40 0  1440 40 0  1460 40 0  1480 40 0  1500 40 0  1520 40 0  1540 40 0  1560 40 0  1580 40 0  1600 40 0  1620 40 0  1640 40 0  1660 40 0  1680 40 0  1700 40 0  1720 40 0  1740 40 0  1760 40 0  1780 40 0  1800 40 0  1820 40 0  1840 40 0  1860 40 0  1880 40 0  1900 40 0  1920 40 0  1940 40 0  1960 40 0  1980 40 0  2000 40 0  0 50 0  20 50 0  40 50 0  60 50 0  80 50 0  100 50 0  120 50 0  140 50 0  160 50 0  180 50 0  200 50 0  220 50 0  240 50 0  260 50 0  280 50 0  300 50 0  320 50 0  340 50 0  360 50 0  380 50 0  400 50 0  420 50 0  440 50 0  460 50 0  480 50 0  500 50 0  520 50 0  540 50 0  560 50 0  580 50 0  600 50 0  620 50 0  640 50 0  660 50 0  680 50 0  700 50 0  720 50 0  740 50 0  760 50 0  780 50 0  800 50 0  820 50 0  840 50 0  860 50 0  880 50 0  900 50 0  920 50 0  940 50 0  960 50 0  980 50 0  1000 50 0  1020 50 0  1040 50 0  1060 50 0  1080 50 0  1100 50 0  1120 50 0  1140 50 0  1160 50 0  1180 50 0  1200 50 0  1220 50 0  1240 50 0  1260 50 0  1280 50 0  1300 50 0  1320 50 0  1340 50 0  1360 50 0  1380 50 0  1400 50 0  1420 50 0  1440 50 0  1460 50 0  1480 50 0  1500 50 0  1520 50 0  1540 50 0  1560 50 0  1580 50 0  1600 50 0  1620 50 0  1640 50 0  1660 50 0  1680 50 0  1700 50 0  1720 50 0  1740 50 0  1760 50 0  1780 50 0  1800 50 0  1820 50 0  1840 50 0  1860 50 0  1880 50 0  1900 50 0  1920 50 0  1940 50 0  1960 50 0  1980 50 0  2000 50 0  0 60 0  20 60 0  40 60 0  60 60 0  80 60 0  100 60 0  120 60 0  140 60 0  160 60 0  180 60 0  200 60 0  220 60 0  240 60 0  260 60 0  280 60 0  300 60 0  320 60 0  340 60 0  360 60 0  380 60 0  400 60 0  420 60 0  440 60 0  460 60 0  480 60 0  500 60 0  520 60 0  540 60 0  560 60 0  580 60 0  600 60 0  620 60 0  640 60 0  660 60 0  680 60 0  700 60 0  720 60 0  740 60 0  760 60 0  780 60 0  800 60 0  820 60 0  840 60 0  860 60 0  880 60 0  900 60 0  920 60 0  940 60 0  960 60 0  980 60 0  1000 60 0  1020 60 0  1040 60 0  1060 60 0  1080 60 0  1100 60 0  1120 60 0  1140 60 0  1160 60 0  1180 60 0  1200 60 0  1220 60 0  1240 60 0  1260 60 0  1280 60 0  1300 60 0  1320 60 0  1340 60 0  1360 60 0  1380 60 0  1400 60 0  1420 60 0  1440 60 0  1460 60 0  1480 60 0  1500 60 0  1520 60 0  1540 60 0  1560 60 0  1580 60 0  1600 60 0  1620 60 0  1640 60 0  1660 60 0  1680 60 0  1700 60 0  1720 60 0  1740 60 0  1760 60 0  1780 60 0  1800 60 0  1820 60 0  1840 60 0  1860 60 0  1880 60 0  1900 60 0  1920 60 0  1940 60 0  1960 60 0  1980 60 0  2000 60 0  0 70 0  20 70 0  40 70 0  60 70 0  80 70 0  100 70 0  120 70 0  140 70 0  160 70 0  180 70 0  200 70 0  220 70 0  240 70 0  260 70 0  280 70 0  300 70 0  320 70 0  340 70 0  360 70 0  380 70 0  400 70 0  420 70 0  440 70 0  460 70 0  480 70 0  500 70 0  520 70 0  540 70 0  560 70 0  580 70 0  600 70 0  620 70 0  640 70 0  660 70 0  680 70 0  700 70 0  720 70 0  740 70 0  760 70 0  780 70 0  800 70 0  820 70 0  840 70 0  860 70 0  880 70 0  900 70 0  920 70 0  940 70 0  960 70 0  980 70 0  1000 70 0  1020 70 0  1040 70 0  1060 70 0  1080 70 0  1100 70 0  1120 70 0  1140 70 0  1160 70 0  1180 70 0  1200 70 0  1220 70 0  1240 70 0  1260 70 0  1280 70 0  1300 70 0  1320 70 0  1340 70 0  1360 70 0  1380 70 0  1400 70 0  1420 70 0  1440 70 0  1460 70 0  1480 70 0  1500 70 0  1520 70 0  1540 70 0  1560 70 0  1580 70 0  1600 70 0  1620 70 0  1640 70 0  1660 70 0  1680 70 0  1700 70 0  1720 70 0  1740 70 0  1760 70 0  1780 70 0  1800 70 0  1820 70 0  1840 70 0  1860 70 0  1880 70 0  1900 70 0  1920 70 0  1940 70 0  1960 70 0  1980 70 0  2000 70 0  0 80 0  20 80 0  40 80 0  60 80 0  80 80 0  100 80 0  120 80 0  140 80 0  160 80 0  180 80 0  200 80 0  220 80 0  240 80 0  260 80 0  280 80 0  300 80 0  320 80 0  340 80 0  360 80 0  380 80 0  400 80 0  420 80 0  440 80 0  460 80 0  480 80 0  500 80 0  520 80 0  540 80 0  560 80 0  580 80 0  600 80 0  620 80 0  640 80 0  660 80 0  680 80 0  700 80 0  720 80 0  740 80 0  760 80 0  780 80 0  800 80 0  820 80 0  840 80 0  860 80 0  880 80 0  900 80 0  920 80 0  940 80 0  960 80 0  980 80 0  1000 80 0  1020 80 0  1040 80 0  1060 80 0  1080 80 0  1100 80 0  1120 80 0  1140 80 0  1160 80 0  1180 80 0  1200 80 0  1220 80 0  1240 80 0  1260 80 0  1280 80 0  1300 80 0  1320 80 0  1340 80 0  1360 80 0  1380 80 0  1400 80 0  1420 80 0  1440 80 0  1460 80 0  1480 80 0  1500 80 0  1520 80 0  1540 80 0  1560 80 0  1580 80 0  1600 80 0  1620 80 0  1640 80 0  1660 80 0  1680 80 0  1700 80 0  1720 80 0  1740 80 0  1760 80 0  1780 80 0  1800 80 0  1820 80 0  1840 80 0  1860 80 0  1880 80 0  1900 80 0  1920 80 0  1940 80 0  1960 80 0  1980 80 0  2000 80 0  0 90 0  20 90 0  40 90 0  60 90 0  80 90 0  100 90 0  120 90 0  140 90 0  160 90 0  180 90 0  200 90 0  220 90 0  240 90 0  260 90 0  280 90 0  300 90 0  320 90 0  340 90 0  360 90 0  380 90 0  400 90 0  420 90 0  440 90 0  460 90 0  480 90 0  500 90 0  520 90 0  540 90 0  560 90 0  580 90 0  600 90 0  620 90 0  640 90 0  660 90 0  680 90 0  700 90 0  720 90 0  740 90 0  760 90 0  
[...]
<CellData  Scalars="f_20"> 
<DataArray  type="Float64"  Name="f_20"  format="ascii">0.0000000000000000e+00   0.0000000000000000e+00   0.0000000000000000e+00   0.0000000000000000e+00   0.0000000000000000e+00   0.0000000000000000e+00   0.0000000000000000e+00   0.0000000000000000e+00   0.0000000000000000e+00   0.0000000000000000e+00   0.0000000000000000e+00   0.0000000000000000e+00   0.0000000000000000e+00   0.0000000000000000e+00   0.0000000000000000e+00   0.0000000000000000e+00   0.0000000000000000e+00   0.0000000000000000e+00   0.0000000000000000e+00   0.0000000000000000e+00   0.0000000000000000e+00   0.0000000000000000e+00   0.0000000000000000e+00   0.0000000000000000e+00   0.0000000000000000e+00   0.0000000000000000e+00   0.0000000000000000e+00   0.0000000000000000e+00   0.0000000000000000e+00   0.0000000000000000e+00   0.0000000000000000e+00   0.0000000000000000e+00   0.0000000000000000e+00   0.0000000000000000e+00   0.0000000000000000e+00   0.0000000000000000e+00   0.0000000000000000e+00   0.0000000000000000e+00   0.0000000000000000e+00   0.0000000000000000e+00   0.0000000000000000e+00   0.0000000000000000e+00   0.0000000000000000e+00   0.0000000000000000e+00   0.0000000000000000e+00   0.0000000000000000e+00   0.0000000000000000e+00   0.0000000000000000e+00   0.0000000000000000e+00   0.0000000000000000e+00   0.0000000000000000e+00   0.0000000000000000e+00   0.0000000000000000e+00   0.0000000000000000e+00   0.0000000000000000e+00   0.0000000000000000e+00   0.0000000000000000e+00   0.0000000000000000e+00   0.0000000000000000e+00   0.0000000000000000e+00   0.0000000000000000e+00   0.0000000000000000e+00   0.0000000000000000e+00   0.0000000000000000e+00   0.0000000000000000e+00   0.0000000000000000e+00   0.0000000000000000e+00   0.0000000000000000e+00   0.0000000000000000e+00   0.0000000000000000e+00   0.0000000000000000e+00   0.0000000000000000e+00   0.0000000000000000e+00   0.0000000000000000e+00   0.0000000000000000e+00   0.0000000000000000e+00   0.0000000000000000e+00   0.0000000000000000e+00   0.0000000000000000e+00   0.0000000000000000e+00   0.0000000000000000e+00   0.0000000000000000e+00   0.0000000000000000e+00   0.0000000000000000e+00   0.0000000000000000e+00   0.0000000000000000e+00   0.0000000000000000e+00   0.0000000000000000e+00   0.0000000000000000e+00   0.0000000000000000e+00   0.0000000000000000e+00   0.0000000000000000e+00   0.0000000000000000e+00   0.0000000000000000e+00   0.0000000000000000e+00   0.0000000000000000e+00   0.0000000000000000e+00   0.0000000000000000e+00   0.0000000000000000e+00   0.0000000000000000e+00   0.0000000000000000e+00   0.0000000000000000e+00   0.0000000000000000e+00   0.0000000000000000e+00   0.0000000000000000e+00   0.0000000000000000e+00   0.0000000000000000e+00   0.0000000000000000e+00   0.0000000000000000e+00   0.0000000000000000e+00   0.0000000000000000e+00   0.0000000000000000e+00   0.0000000000000000e+00   0.0000000000000000e+00   0.0000000000000000e+00   0.0000000000000000e+00   0.0000000000000000e+00   0.0000000000000000e+00   0.0000000000000000e+00   0.0000000000000000e+00   0.0000000000000000e+00   0.0000000000000000e+00   0.0000000000000000e+00   0.0000000000000000e+00   0.0000000000000000e+00   0.0000000000000000e+00   0.0000000000000000e+00   0.0000000000000000e+00   0.0000000000000000e+00   0.0000000000000000e+00   0.0000000000000000e+00   0.0000000000000000e+00   0.0000000000000000e+00   0.0000000000000000e+00   0.0000000000000000e+00   0.0000000000000000e+00   0.0000000000000000e+00   0.0000000000000000e+00   0.0000000000000000e+00   0.0000000000000000e+00   0.0000000000000000e+00   0.0000000000000000e+00   0.0000000000000000e+00   0.0000000000000000e+00   0.0000000000000000e+00   0.0000000000000000e+00   0.0000000000000000e+00   0.0000000000000000e+00   0.0000000000000000e+00   0.0000000000000000e+00   0.0000000000000000e+00   0.0000000000000000e+00   0.0000000000000000e+00   0.0000000000000000e+00   0.0000000000000000e+00   0.0000000000000000e+00   0.0000000000000000e+00   0.0000000000000000e+00   0.0000000000000000e+00   0.0000000000000000e+00   0.0000000000000000e+00   0.0000000000000000e+00   0.0000000000000000e+00   0.0000000000000000e+00   0.0000000000000000e+00   0.0000000000000000e+00   0.0000000000000000e+00   0.0000000000000000e+00   0.0000000000000000e+00   0.0000000000000000e+00   0.0000000000000000e+00   0.0000000000000000e+00   0.0000000000000000e+00   0.0000000000000000e+00   0.0000000000000000e+00   0.0000000000000000e+00   0.0000000000000000e+00   0.0000000000000000e+00   0.0000000000000000e+00   0.0000000000000000e+00   0.0000000000000000e+00   0.0000000000000000e+00   0.0000000000000000e+00   0.0000000000000000e+00   0.0000000000000000e+00   0.0000000000000000e+00   0.0000000000000000e+00   0.0000000000000000e+00   0.0000000000000000e+00   0.0000000000000000e+00   0.0000000000000000e+00   0.0000000000000000e+00   0.0000000000000000e+00   0.0000000000000000e+00   0.0000000000000000e+00   0.0000000000000000e+00   0.0000000000000000e+00   0.0000000000000000e+00   0.0000000000000000e+00   0.0000000000000000e+00   0.0000000000000000e+00   0.0000000000000000e+00   0.0000000000000000e+00   0.0000000000000000e+00   0.0000000000000000e+00   0.0000000000000000e+00   0.0000000000000000e+00   0.0000000000000000e+00   0.0000000000000000e+00   0.0000000000000000e+00   0.0000000000000000e+00   0.0000000000000000e+00   0.0000000000000000e+00   0.0000000000000000e+00   0.0000000000000000e+00   0.0000000000000000e+00   0.0000000000000000e+00   0.0000000000000000e+00   0.0000000000000000e+00   0.0000000000000000e+00   0.0000000000000000e+00   0.0000000000000000e+00   0.0000000000000000e+00   0.0000000000000000e+00   0.0000000000000000e+00   0.0000000000000000e+00   0.0000000000000000e+00   0.0000000000000000e+00   0.0000000000000000e+00   0.0000000000000000e+00   0.0000000000000000e+00   0.0000000000000000e+00   0.0000000000000000e+00   0.0000000000000000e+00   0.0000000000000000e+00   0.0000000000000000e+00   0.0000000000000000e+00   0.0000000000000000e+00   0.0000000000000000e+00   0.0000000000000000e+00   0.0000000000000000e+00   0.0000000000000000e+00   0.0000000000000000e+00   0.0000000000000000e+00   0.0000000000000000e+00   0.0000000000000000e+00   0.0000000000000000e+00   0.0000000000000000e+00   0.0000000000000000e+00   0.0000000000000000e+00   0.0000000000000000e+00   0.0000000000000000e+00   0.0000000000000000e+00   0.0000000000000000e+00   0.0000000000000000e+00   0.0000000000000000e+00   0.0000000000000000e+00   0.0000000000000000e+00   0.0000000000000000e+00   0.0000000000000000e+00   0.0000000000000000e+00   0.0000000000000000e+00   0.0000000000000000e+00   0.0000000000000000e+00   0.0000000000000000e+00   0.0000000000000000e+00   0.0000000000000000e+00   0.0000000000000000e+00   0.0000000000000000e+00   0.0000000000000000e+00   0.0000000000000000e+00   0.0000000000000000e+00   0.0000000000000000e+00   0.0000000000000000e+00   0.0000000000000000e+00   0.0000000000000000e+00   0.0000000000000000e+00   0.0000000000000000e+00   0.0000000000000000e+00   0.0000000000000000e+00   0.0000000000000000e+00   0.0000000000000000e+00   0.0000000000000000e+00   0.0000000000000000e+00   0.0000000000000000e+00   0.0000000000000000e+00   0.0000000000000000e+00   0.0000000000000000e+00   0.0000000000000000e+00   0.0000000000000000e+00   0.0000000000000000e+00   0.0000000000000000e+00   0.0000000000000000e+00   0.0000000000000000e+00   0.0000000000000000e+00   0.0000000000000000e+00   0.0000000000000000e+00   0.0000000000000000e+00   0.0000000000000000e+00   0.0000000000000000e+00   0.0000000000000000e+00   0.0000000000000000e+00   0.0000000000000000e+00   0.0000000000000000e+00   0.0000000000000000e+00   0.0000000000000000e+00   0.0000000000000000e+00   0.0000000000000000e+00   0.0000000000000000e+00   0.0000000000000000e+00   0.0000000000000000e+00   0.0000000000000000e+00   0.0000000000000000e+00   0.0000000000000000e+00   0.0000000000000000e+00   0.0000000000000000e+00   0.0000000000000000e+00   0.0000000000000000e+00   0.0000000000000000e+00   0.0000000000000000e+00   0.0000000000000000e+00   0.0000000000000000e+00   0.0000000000000000e+00   0.0000000000000000e+00   0.0000000000000000e+00   0.0000000000000000e+00   0.0000000000000000e+00   0.0000000000000000e+00   0.0000000000000000e+00   0.0000000000000000e+00   0.0000000000000000e+00   0.0000000000000000e+00   0.0000000000000000e+00   0.0000000000000000e+00   0.0000000000000000e+00   0.0000000000000000e+00   0.0000000000000000e+00   0.0000000000000000e+00   0.0000000000000000e+00   0.0000000000000000e+00   0.0000000000000000e+00   0.0000000000000000e+00   0.0000000000000000e+00   0.0000000000000000e+00   0.0000000000000000e+00   0.0000000000000000e+00   0.0000000000000000e+00   0.0000000000000000e+00   0.0000000000000000e+00   0.0000000000000000e+00   0.0000000000000000e+00   0.0000000000000000e+00   0.0000000000000000e+00   0.0000000000000000e+00   0.0000000000000000e+00   0.0000000000000000e+00   0.0000000000000000e+00   0.0000000000000000e+00   0.0000000000000000e+00   0.0000000000000000e+00   0.0000000000000000e+00   0.0000000000000000e+00   0.0000000000000000e+00   0.0000000000000000e+00   0.0000000000000000e+00   0.0000000000000000e+00   0.0000000000000000e+00   0.0000000000000000e+00   0.0000000000000000e+00   0.0000000000000000e+00   0.0000000000000000e+00   0.0000000000000000e+00   0.0000000000000000e+00   0.0000000000000000e+00   0.0000000000000000e+00   0.0000000000000000e+00   0.0000000000000000e+00   0.0000000000000000e+00   0.0000000000000000e+00   0.0000000000000000e+00   0.0000000000000000e+00   0.0000000000000000e+00   0.0000000000000000e+00   0.0000000000000000e+00   0.0000000000000000e+00   0.0000000000000000e+00   0.0000000000000000e+00   0.0000000000000000e+00   0.0000000000000000e+00   0.0000000000000000e+00   0.0000000000000000e+00   0.0000000000000000e+00   0.0000000000000000e+00   0.0000000000000000e+00   0.0000000000000000e+00   0.0000000000000000e+00   0.0000000000000000e+00   0.0000000000000000e+00   0.0000000000000000e+00   0.0000000000000000e+00   0.0000000000000000e+00   0.0000000000000000e+00   0.0000000000000000e+00   0.0000000000000000e+00   0.0000000000000000e+00   0.0000000000000000e+00   0.0000000000000000e+00   0.0000000000000000e+00   0.0000000000000000e+00   0.0000000000000000e+00   0.0000000000000000e+00   0.0000000000000000e+00   0.0000000000000000e+00   0.0000000000000000e+00   0.0000000000000000e+00   0.0000000000000000e+00   0.0000000000000000e+00   0.0000000000000000e+00   0.0000000000000000e+00   0.0000000000000000e+00   0.0000000000000000e+00   0.0000000000000000e+00   0.0000000000000000e+00   0.0000000000000000e+00   0.0000000000000000e+00   0.0000000000000000e+00   0.0000000000000000e+00   0.0000000000000000e+00   0.0000000000000000e+00   0.0000000000000000e+00   0.0000000000000000e+00   0.0000000000000000e+00   0.0000000000000000e+00   0.0000000000000000e+00   0.0000000000000000e+00   0.0000000000000000e+00   0.0000000000000000e+00   0.0000000000000000e+00   0.0000000000000000e+00   0.0000000000000000e+00   0.0000000000000000e+00   0.0000000000000000e+00   0.0000000000000000e+00   0.0000000000000000e+00   0.0000000000000000e+00   0.0000000000000000e+00   0.0000000000000000e+00   0.0000000000000000e+00   0.0000000000000000e+00   0.0000000000000000e+00   0.0000000000000000e+00   0.0000000000000000e+00   0.0000000000000000e+00   0.0000000000000000e+00   0.0000000000000000e+00   0.0000000000000000e+00   0.0000000000000000e+00   0.0000000000000000e+00   0.0000000000000000e+00   0.0000000000000000e+00   0.0000000000000000e+00   0.0000000000000000e+00   0.0000000000000000e+00   0.0000000000000000e+00   0.0000000000000000e+00   0.0000000000000000e+00   0.0000000000000000e+00   0.0000000000000000e+00   0.0000000000000000e+00   0.0000000000000000e+00   0.0000000000000000e+00   0.0000000000000000e+00   0.0000000000000000e+00   0.0000000000000000e+00   0.0000000000000000e+00   0.0000000000000000e+00   0.0000000000000000e+00   0.0000000000000000e+00   0.0000000000000000e+00   0.0000000000000000e+00   0.0000000000000000e+00   0.0000000000000000e+00   0.0000000000000000e+00   0.0000000000000000e+00   0.0000000000000000e+00   0.0000000000000000e+00   0.0000000000000000e+00   0.0000000000000000e+00   0.0000000000000000e+00   0.0000000000000000e+00   0.0000000000000000e+00   0.0000000000000000e+00   0.0000000000000000e+00   0.0000000000000000e+00   0.0000000000000000e+00   0.0000000000000000e+00   0.0000000000000000e+00   0.0000000000000000e+00   0.0000000000000000e+00   0.0000000000000000e+00   0.0000000000000000e+00   0.0000000000000000e+00   0.0000000000000000e+00   0.0000000000000000e+00   0.0000000000000000e+00   0.0000000000000000e+00   0.0000000000000000e+00   0.0000000000000000e+00   0.0000000000000000e+00   0.0000000000000000e+00   0.0000000000000000e+00   0.0000000000000000e+00   0.0000000000000000e+00   0.0000000000000000e+00   0.0000000000000000e+00   0.0000000000000000e+00   0.0000000000000000e+00   0.0000000000000000e+00   0.0000000000000000e+00   0.0000000000000000e+00   0.0000000000000000e+00   0.0000000000000000e+00   0.0000000000000000e+00   0.0000000000000000e+00   0.0000000000000000e+00   0.0000000000000000e+00   0.0000000000000000e+00   0.0000000000000000e+00   0.0000000000000000e+00   0.0000000000000000e+00   0.0000000000000000e+00   0.0000000000000000e+00   0.0000000000000000e+00   0.0000000000000000e+00   0.0000000000000000e+00   0.0000000000000000e+00   0.0000000000000000e+00   0.0000000000000000e+00   0.0000000000000000e+00   0.0000000000000000e+00   0.0000000000000000e+00   0.0000000000000000e+00   0.0000000000000000e+00   0.0000000000000000e+00   0.0000000000000000e+00   0.0000000000000000e+00   0.0000000000000000e+00   0.0000000000000000e+00   0.0000000000000000e+00   0.0000000000000000e+00   0.0000000000000000e+00   0.0000000000000000e+00   0.0000000000000000e+00   0.0000000000000000e+00   0.0000000000000000e+00   0.0000000000000000e+00   0.0000000000000000e+00   0.0000000000000000e+00   0.0000000000000000e+00   0.0000000000000000e+00   0.0000000000000000e+00   0.0000000000000000e+00   0.0000000000000000e+00   0.0000000000000000e+00   0.0000000000000000e+00   0.0000000000000000e+00   0.0000000000000000e+00   0.0000000000000000e+00   0.0000000000000000e+00   0.0000000000000000e+00   0.0000000000000000e+00   0.0000000000000000e+00   0.0000000000000000e+00   0.0000000000000000e+00   0.0000000000000000e+00   0.0000000000000000e+00   0.0000000000000000e+00   0.0000000000000000e+00   0.0000000000000000e+00   0.0000000000000000e+00   0.0000000000000000e+00   0.0000000000000000e+00   0.0000000000000000e+00   0.0000000000000000e+00   0.0000000000000000e+00   0.0000000000000000e+00   0.0000000000000000e+00   0.0000000000000000e+00   0.0000000000000000e+00   0.0000000000000000e+00   0.0000000000000000e+00   0.0000000000000000e+00   0.0000000000000000e+00   0.0000000000000000e+00   0.0000000000000000e+00   0.0000000000000000e+00   0.0000000000000000e+00   0.0000000000000000e+00   0.0000000000000000e+00   0.0000000000000000e+00   0.0000000000000000e+00   0.0000000000000000e+00   0.0000000000000000e+00   0.0000000000000000e+00   0.0000000000000000e+00   0.0000000000000000e+00   0.0000000000000000e+00   0.0000000000000000e+00   0.0000000000000000e+00   0.0000000000000000e+00   0.0000000000000000e+00   0.0000000000000000e+00   0.0000000000000000e+00   0.0000000000000000e+00   0.0000000000000000e+00   0.0000000000000000e+00   0.0000000000000000e+00   0.0000000000000000e+00   0.0000000000000000e+00   0.0000000000000000e+00   0.0000000000000000e+00   0.0000000000000000e+00   0.0000000000000000e+00   0.0000000000000000e+00   0.0000000000000000e+00   0.0000000000000000e+00   0.0000000000000000e+00   0.0000000000000000e+00   0.0000000000000000e+00   0.0000000000000000e+00   0.0000000000000000e+00   0.0000000000000000e+00   0.0000000000000000e+00   0.0000000000000000e+00   0.0000000000000000e+00   0.0000000000000000e+00   0.0000000000000000e+00   0.0000000000000000e+00   0.0000000000000000e+00   0.0000000000000000e+00   0.0000000000000000e+00   0.0000000000000000e+00   0.0000000000000000e+00   0.0000000000000000e+00   0.0000000000000000e+00   0.0000000000000000e+00   0.0000000000000000e+00   0.0000000000000000e+00   0.0000000000000000e+00   0.0000000000000000e+00   0.0000000000000000e+00   0.0000000000000000e+00   0.0000000000000000e+00   0.0000000000000000e+00   0.0000000000000000e+00   0.0000000000000000e+00   0.0000000000000000e+00   0.0000000000000000e+00   0.0000000000000000e+00   0.0000000000000000e+00   0.0000000000000000e+00   0.0000000000000000e+00   0.0000000000000000e+00   0.0000000000000000e+00   0.0000000000000000e+00   0.0000000000000000e+00   0.0000000000000000e+00   0.0000000000000000e+00   0.0000000000000000e+00   0.0000000000000000e+00   0.0000000000000000e+00   0.0000000000000000e+00   0.0000000000000000e+00   0.0000000000000000e+00   0.0000000000000000e+00   0.0000000000000000e+00   0.0000000000000000e+00   0.0000000000000000e+00   0.0000000000000000e+00   0.0000000000000000e+00   0.0000000000000000e+00   0.0000000000000000e+00   0.0000000000000000e+00   0.0000000000000000e+00   0.0000000000000000e+00   0.0000000000000000e+00   0.0000000000000000e+00   0.0000000000000000e+00   0.0000000000000000e+00   0.0000000000000000e+00   0.0000000000000000e+00   0.0000000000000000e+00   0.0000000000000000e+00   0.0000000000000000e+00   0.0000000000000000e+00   0.0000000000000000e+00   0.0000000000000000e+00   0.0000000000000000e+00   0.0000000000000000e+00   0.0000000000000000e+00   0.0000000000000000e+00   0.0000000000000000e+00   0.0000000000000000e+00   0.0000000000000000e+00   0.0000000000000000e+00   0.0000000000000000e+00   0.0000000000000000e+00   0.0000000000000000e+00   0.0000000000000000e+00   0.0000000000000000e+00   0.0000000000000000e+00   0.0000000000000000e+00   0.0000000000000000e+00   0.0000000000000000e+00   0.0000000000000000e+00   0.0000000000000000e+00   0.0000000000000000e+00   0.0000000000000000e+00   0.0000000000000000e+00   0.0000000000000000e+00   0.0000000000000000e+00   0.0000000000000000e+00   0.0000000000000000e+00   0.0000000000000000e+00   0.0000000000000000e+00   0.0000000000000000e+00   0.0000000000000000e+00   0.0000000000000000e+00   0.0000000000000000e+00   0.0000000000000000e+00   0.0000000000000000e+00   0.0000000000000000e+00   0.0000000000000000e+00   0.0000000000000000e+00   0.0000000000000000e+00   0.0000000000000000e+00   0.0000000000000000e+00   0.0000000000000000e+00   0.0000000000000000e+00   0.0000000000000000e+00   0.0000000000000000e+00   0.0000000000000000e+00   0.0000000000000000e+00   0.0000000000000000e+00   0.0000000000000000e+00   0.0000000000000000e+00   0.0000000000000000e+00   0.0000000000000000e+00   0.0000000000000000e+00   0.0000000000000000e+00   0.0000000000000000e+00   0.0000000000000000e+00   0.0000000000000000e+00   0.0000000000000000e+00   0.0000000000000000e+00   0.0000000000000000e+00   0.0000000000000000e+00   0.0000000000000000e+00   0.0000000000000000e+00   0.0000000000000000e+00   0.0000000000000000e+00   0.0000000000000000e+00   0.0000000000000000e+00   0.0000000000000000e+00   0.0000000000000000e+00   0.0000000000000000e+00   0.0000000000000000e+00   0.0000000000000000e+00   0.0000000000000000e+00   0.0000000000000000e+00   0.0000000000000000e+00   0.0000000000000000e+00   0.0000000000000000e+00   0.0000000000000000e+00   0.0000000000000000e+00   0.0000000000000000e+00   0.0000000000000000e+00   0.0000000000000000e+00   0.0000000000000000e+00   0.0000000000000000e+00   0.0000000000000000e+00   0.0000000000000000e+00   0.0000000000000000e+00   0.0000000000000000e+00   0.0000000000000000e+00   0.0000000000000000e+00   0.0000000000000000e+00   0.0000000000000000e+00   0.0000000000000000e+00   0.0000000000000000e+00   0.0000000000000000e+00   0.0000000000000000e+00   0.0000000000000000e+00   0.0000000000000000e+00   0.0000000000000000e+00   0.0000000000000000e+00   0.00000000000000